2
# Step: 0 Box:    6.0000    6.0000    6.0000 
H         0.762480776     0.021132690    -0.090803072
H        -0.000932178    -0.020457943     0.093236572
